# vtk DataFile Version 2.0
time_10.vtk
ASCII
DATASET UNSTRUCTURED_GRID
POINTS 40 float
      5.000000       0.000000       0.000000
      6.667000       0.000000       0.000000
      8.333000       0.000000       0.000000
     10.667000       0.000000       0.000000
     13.000000       0.000000       0.000000
     16.500000       0.000000       0.000000
     20.000000       0.000000       0.000000
      4.830000       1.294000       0.000000
      8.049000       2.157000       0.000000
     12.557000       3.365000       0.000000
     19.319000       5.176000       0.000000
      4.330000       2.500000       0.000000
      5.774000       3.333000       0.000000
      7.217000       4.167000       0.000000
      9.238000       5.333000       0.000000
     11.258000       6.500000       0.000000
     14.289000       8.250000       0.000000
     17.321000      10.000000       0.000000
      3.536000       3.536000       0.000000
      5.893000       5.893000       0.000000
      9.192000       9.192000       0.000000
     14.142000      14.142000       0.000000
      2.500000       4.330000       0.000000
      3.333000       5.774000       0.000000
      4.167000       7.217000       0.000000
      5.333000       9.238000       0.000000
      6.500000      11.258000       0.000000
      8.250000      14.289000       0.000000
     10.000000      17.321000       0.000000
      1.294000       4.830000       0.000000
      2.157000       8.049000       0.000000
      3.365000      12.557000       0.000000
      5.176000      19.319000       0.000000
      0.000000       5.000000       0.000000
      0.000000       6.667000       0.000000
      0.000000       8.333000       0.000000
      0.000000      10.667000       0.000000
      0.000000      13.000000       0.000000
      0.000000      16.500000       0.000000
      0.000000      20.000000       0.000000
CELLS 9 81
8     0    2   13   11    1    8   12    7
8     2    4   15   13    3    9   14    8
8     4    6   17   15    5   10   16    9
8    11   13   24   22   12   19   23   18
8    13   15   26   24   14   20   25   19
8    15   17   28   26   16   21   27   20
8    22   24   35   33   23   30   34   29
8    24   26   37   35   25   31   36   30
8    26   28   39   37   27   32   38   31
CELL_TYPES 9
23
23
23
23
23
23
23
23
23
POINT_DATA 40
SCALARS sigma_xx float 1
LOOKUP_TABLE default
 -4.487535e+00
 -4.487535e+00
 -2.906653e+00
 -1.325771e+00
 -7.450477e-01
 -1.643246e-01
 -1.643246e-01
 -4.487535e+00
 -2.906653e+00
 -7.450477e-01
 -1.643246e-01
 -1.851810e+00
 -1.851810e+00
 -1.082688e+00
 -3.135661e-01
 -2.813166e-02
  2.573027e-01
  2.573027e-01
  7.839142e-01
  7.412765e-01
  6.887844e-01
  6.789301e-01
  3.418477e+00
  3.418477e+00
  2.564704e+00
  1.710931e+00
  1.405719e+00
  1.100508e+00
  1.100508e+00
  6.053041e+00
  4.388132e+00
  2.122655e+00
  1.522085e+00
  6.053041e+00
  6.053041e+00
  4.388132e+00
  2.723224e+00
  2.122655e+00
  1.522085e+00
  1.522085e+00
SCALARS sigma_yy float 1
LOOKUP_TABLE default
  6.053041e+00
  6.053041e+00
  4.388132e+00
  2.723224e+00
  2.122655e+00
  1.522085e+00
  1.522085e+00
  6.053041e+00
  4.388132e+00
  2.122655e+00
  1.522085e+00
  3.418477e+00
  3.418477e+00
  2.564704e+00
  1.710931e+00
  1.405719e+00
  1.100508e+00
  1.100508e+00
  7.839142e-01
  7.412765e-01
  6.887844e-01
  6.789301e-01
 -1.851810e+00
 -1.851810e+00
 -1.082688e+00
 -3.135661e-01
 -2.813166e-02
  2.573027e-01
  2.573027e-01
 -4.487535e+00
 -2.906653e+00
 -7.450477e-01
 -1.643246e-01
 -4.487535e+00
 -4.487535e+00
 -2.906653e+00
 -1.325771e+00
 -7.450477e-01
 -1.643246e-01
 -1.643246e-01
SCALARS sigma_xy float 1
LOOKUP_TABLE default
 -3.042157e+00
 -3.042157e+00
 -2.105507e+00
 -1.168856e+00
 -8.278567e-01
 -4.868574e-01
 -4.868574e-01
 -3.042157e+00
 -2.105507e+00
 -8.278567e-01
 -4.868574e-01
 -4.563577e+00
 -4.563577e+00
 -3.158380e+00
 -1.753184e+00
 -1.241741e+00
 -7.302989e-01
 -7.302989e-01
 -6.084996e+00
 -4.211254e+00
 -1.655626e+00
 -9.737404e-01
 -4.563577e+00
 -4.563577e+00
 -3.158380e+00
 -1.753184e+00
 -1.241741e+00
 -7.302989e-01
 -7.302989e-01
 -3.042157e+00
 -2.105507e+00
 -8.278567e-01
 -4.868574e-01
 -3.042157e+00
 -3.042157e+00
 -2.105507e+00
 -1.168856e+00
 -8.278567e-01
 -4.868574e-01
 -4.868574e-01
